# Fcc TiN alloy oriented X=[100] Y=[010] Z=[001].
 
           4  atoms
           2  atom types
 
      0.000000000000       4.950000000000  xlo xhi
      0.000000000000       4.950000000000  ylo yhi
      0.000000000000       4.950000000000  zlo zhi
 
Masses
 
            1   47.86700000             # Ti
            2   14.00700000             # N
 
Atoms # atomic
 
         1    1        0.000000000000       0.000000000000       0.000000000000
         2    1        2.475000000000       2.475000000000       0.000000000000
         3    2        0.000000000000       2.475000000000       2.475000000000
         4    2        2.475000000000       0.000000000000       2.475000000000
